 Gaussian 16, Revision C.01,
 Gaussian 16:  ES64L-G16RevC.01  3-Jul-2019

 --------------------------------------------
 # opt freq mp2/aug-cc-pvtz geom=connectivity
 --------------------------------------------

 -------------------
 Title Card Required
 -------------------
 Symbolic Z-matrix:
 Charge =  0 Multiplicity = 1

 SCF Done:  E(RHF) =  -76.0600661841     A.U. after   10 cycles
 E2 =    -0.2682568320D+00 EUMP2 =    -0.76328323016059D+02
 SCF Done:  E(RHF) =  -76.0605173065     A.U. after    8 cycles
 E2 =    -0.2684589699D+00 EUMP2 =    -0.76328976276467D+02
 SCF Done:  E(RHF) =  -76.0603001744     A.U. after    8 cycles
 E2 =    -0.2686920624D+00 EUMP2 =    -0.76328992236863D+02
 Optimization completed.
    -- Stationary point found.
 Normal termination of Gaussian 16 at Thu Sep 21 10:37:23 2023.

 ----------------------------------------------------------------------
 #N Geom=AllCheck Guess=TCheck SCRF=Check GenChk RMP2(FC)/Aug-CC-pVTZ F
 req
 ----------------------------------------------------------------------

 Structure from the checkpoint file:  "water_optfreq.chk"
 -------------------
 Title Card Required
 -------------------
 Charge =  0 Multiplicity = 1

                         Standard orientation:
 ---------------------------------------------------------------------
 Center     Atomic      Atomic             Coordinates (Angstroms)
 Number     Number       Type             X           Y           Z
 ---------------------------------------------------------------------
      1          8           0       -0.000000   -0.000000    0.118189
      2          1           0       -0.000000   -0.758025   -0.472754
      3          1           0        0.000000    0.758025   -0.472754
 ---------------------------------------------------------------------

 SCF Done:  E(RHF) =  -76.0603001744     A.U. after    1 cycles
 E2 =    -0.2686920626D+00 EUMP2 =    -0.76328992237091D+02
 E2 =    -0.2686920626D+00 EUMP2 =    -0.76328992237091D+02

 The electronic state is 1-A1.
 Alpha  occ. eigenvalues --  -20.56806  -1.35187  -0.71494  -0.58497  -0.51015
 Alpha virt. eigenvalues --    0.02937   0.04769   0.13589   0.15877   0.17517
 Alpha virt. eigenvalues --    0.18308   0.22714   0.24493   0.26539   0.30003
 Alpha virt. eigenvalues --    0.31014   0.36579   0.43737   0.46607   0.59920

 Mulliken charges:
               1
     1  O   -0.444482
     2  H    0.222241
     3  H    0.222241
 Sum of Mulliken charges =   0.00000

 Dipole moment (field-independent basis, Debye):
    X=              0.0000    Y=             -0.0000    Z=             -1.9922  Tot=              1.9922
 Quadrupole moment (field-independent basis, Debye-Ang):
   XX=             -7.5664   YY=             -4.2536   ZZ=             -6.2347
   XY=              0.0000   XZ=             -0.0000   YZ=              0.0000

  Exact polarizability:       9.247       0.000      10.014      -0.000      -0.000       9.550
 Approx polarizability:       6.198       0.000       7.860      -0.000      -0.000       7.269

                      1                      2                      3
                     A1                     A1                     B2
 Frequencies --   1627.7612              3824.7050              3950.6090
 Red. masses --      1.0828                 1.0450                 1.0815
 Frc consts  --      1.6904                 9.0069                 9.9448
 IR Inten    --     71.7141                 5.5691                75.5214

 - Thermochemistry -
 -------------------
 Temperature   298.150 Kelvin.  Pressure   1.00000 Atm.
 Atom     1 has atomic number  8 and mass  15.99491

 Molecular mass:    18.01056 amu.
 Principal axes and moments of inertia in atomic units:
                           1         2         3
     Eigenvalues --     2.23233   4.13599   6.36832
           X            0.00000   0.00000   1.00000
           Y            1.00000   0.00000  -0.00000
           Z            0.00000   1.00000   0.00000
 This molecule is an asymmetric top.
 Rotational symmetry number  2.
 Rotational temperatures (Kelvin)     38.79976    20.94151    13.60074
 Rotational constants (GHZ):         808.45577   436.35021   283.39344
 Zero-point vibrational energy      56242.9 (Joules/Mol)
                                   13.44237 (Kcal/Mol)
 Vibrational temperatures:   2341.99  5502.90  5684.05
          (Kelvin)

 Zero-point correction=                           0.021422 (Hartree/Particle)
 Thermal correction to Energy=                    0.024257
 Thermal correction to Enthalpy=                  0.025201
 Thermal correction to Gibbs Free Energy=         0.003778
 Sum of electronic and zero-point Energies=            -76.307570
 Sum of electronic and thermal Energies=               -76.304735
 Sum of electronic and thermal Enthalpies=             -76.303791
 Sum of electronic and thermal Free Energies=          -76.325214

                     E (Thermal)             CV                S
                      KCal/Mol        Cal/Mol-Kelvin    Cal/Mol-Kelvin
 Total                   15.222              6.009             45.089
 Electronic               0.000              0.000              0.000
 Translational            0.889              2.981             34.608
 Rotational               0.889              2.981             10.474
 Vibrational             13.444              0.048              0.007

 Optimization completed.
    -- Stationary point found.
 Normal termination of Gaussian 16 at Thu Sep 21 10:38:20 2023.
